 Gaussian 09, Revision D.01,
 Gaussian 09:  ES64L-G09RevD.01 24-Apr-2013

 --------------------------------------------
 # wB97XD/6-311++G(d,p) SCF=QC opt=tight freq
 --------------------------------------------

 ------
 ligand
 ------
 Symbolic Z-matrix:
 Charge =  0 Multiplicity = 1

 SCF Done:  E(RwB97XD) =  -232.220561046     a.u. after    6 cycles
 SCF Done:  E(RwB97XD) =  -232.220958351     a.u. after    5 cycles
 SCF Done:  E(RwB97XD) =  -232.220962822     a.u. after    2 cycles
 SCF Done:  E(RwB97XD) =  -232.220962835     a.u. after    2 cycles
 SCF Done:  E(RwB97XD) =  -232.220962838     a.u. after    2 cycles
 Optimization completed.
    -- Stationary point found.
 Normal termination of Gaussian 09 at Thu May  4 09:18:31 2017.

 ----------------------------------------------------------------------
 #N Geom=AllCheck Guess=TCheck SCRF=Check GenChk RwB97XD/6-311++G(d,p)
 Freq
 ----------------------------------------------------------------------

 Structure from the checkpoint file:  "lig.chk"
 ------
 ligand
 ------
 Charge =  0 Multiplicity = 1

                         Standard orientation:
 ---------------------------------------------------------------------
 Center     Atomic      Atomic             Coordinates (Angstroms)
 Number     Number       Type             X           Y           Z
 ---------------------------------------------------------------------
      1          6           0        0.000000    0.695430    1.204396
      2          6           0        0.000000   -0.695430    1.204396
      3          6           0        0.000000    1.390760   -0.000001
      4          1           0        0.000000    1.237181    2.143813
      5          6           0        0.000000   -1.390760   -0.000001
      6          1           0        0.000000   -1.237181    2.143813
      7          6           0        0.000000   -0.695432   -1.204395
      8          1           0        0.000000   -2.475260    0.000002
      9          6           0        0.000000    0.695432   -1.204395
     10          1           0        0.000000   -1.237173   -2.143817
     11          1           0        0.000000    1.237173   -2.143817
     12          1           0        0.000000    2.475260    0.000002
 ---------------------------------------------------------------------

 SCF Done:  E(RwB97XD) =  -232.220962838     a.u. after    1 cycles

 The electronic state is 1-A1.
 Alpha  occ. eigenvalues --  -10.29067 -10.29041 -10.29041 -10.28981 -10.28981
 Alpha  occ. eigenvalues --  -10.28953  -0.96177  -0.84984  -0.84983  -0.70039
 Alpha  occ. eigenvalues --   -0.70037  -0.61956  -0.55172  -0.53816  -0.51062
 Alpha  occ. eigenvalues --   -0.51062  -0.46175  -0.42863  -0.42846  -0.33381
 Alpha  occ. eigenvalues --   -0.33377
 Alpha virt. eigenvalues --    0.04260   0.05173   0.05173   0.05356   0.05359
 Alpha virt. eigenvalues --    0.06952   0.06952   0.09146   0.12215   0.13695
 Alpha virt. eigenvalues --    0.14774   0.14779   0.15966   0.16742   0.17209

 Mulliken charges:
               1
     1  C   -0.197763
     2  C   -0.197763
     3  C   -0.198589
     4  H    0.197958
     5  C   -0.198589
     6  H    0.197958
     7  C   -0.197761
     8  H    0.198197
     9  C   -0.197761
    10  H    0.197958
    11  H    0.197958
    12  H    0.198197
 Sum of Mulliken charges =   0.00000

 Dipole moment (field-independent basis, Debye):
    X=              0.0000    Y=              0.0000    Z=              0.0000  Tot=              0.0000
 Quadrupole moment (field-independent basis, Debye-Ang):
   XX=            -40.1499   YY=            -31.5695   ZZ=            -31.5582
   XY=              0.0000   XZ=              0.0000   YZ=              0.0000

  Exact polarizability:  40.996   0.000  77.190   0.000   0.000  77.139
 Approx polarizability:  45.887   0.000  87.829   0.000   0.000  87.832

                      1                      2                      3
                     B1                     A2                     B2
 Frequencies --    411.5183               412.2845               623.3590
 Red. masses --      2.8243                 2.8513                 6.0742
 Frc consts  --      0.2818                 0.2856                 1.3906
 IR Inten    --      0.0133                 0.0000                 0.0000

                      4                      5                      6
                     A1                     B1                     A2
 Frequencies --    623.8775               687.1726               727.1851
 Red. masses --      6.1153                 1.0850                 3.4087
 Frc consts  --      1.4024                 0.3019                 1.0620
 IR Inten    --      0.0000               129.9979                 0.0000

                      7                      8                      9
                     A2                     B1                     B1
 Frequencies --    869.0578               874.6611               996.1873
 Red. masses --      1.2483                 1.2481                 1.3856
 Frc consts  --      0.5555                 0.5626                 0.8102
 IR Inten    --      0.0000                 0.0000                 0.0196

                     10                     11                     12
                     A2                     B2                     A1
 Frequencies --   1001.0454              1023.4876              1025.0682
 Red. masses --      1.3796                 6.5405                 5.9936
 Frc consts  --      0.8145                 4.0367                 3.7106
 IR Inten    --      0.0000                 0.0009                 0.0000

                     13                     14                     15
                     A2                     A1                     B2
 Frequencies --   1025.2470              1068.6158              1071.6917
 Red. masses --      1.2781                 1.6445                 1.6778
 Frc consts  --      0.7915                 1.1064                 1.1354
 IR Inten    --      0.0000                 7.2319                 7.0255

                     16                     17                     18
                     A1                     B2                     A1
 Frequencies --   1179.0056              1203.2093              1210.1634
 Red. masses --      1.1350                 1.1230                 1.1275
 Frc consts  --      0.9295                 0.9579                 0.9729
 IR Inten    --      0.0018                 0.0000                 0.0000

                     19                     20                     21
                     A1                     B2                     A1
 Frequencies --   1340.0294              1382.6840              1519.9700
 Red. masses --      5.1703                 1.2482                 2.0920
 Frc consts  --      5.4701                 1.4060                 2.8476
 IR Inten    --      0.0000                 0.0000                 7.8011

                     22                     23                     24
                     B2                     B2                     A1
 Frequencies --   1524.3965              1666.8207              1667.3463
 Red. masses --      2.0450                 5.6378                 5.4996
 Frc consts  --      2.7999                 9.2287                 9.0081
 IR Inten    --      7.9705                 0.0000                 0.0000

                     25                     26                     27
                     B2                     B2                     A1
 Frequencies --   3185.6051              3195.8824              3196.3093
 Red. masses --      1.0838                 1.0884                 1.0883
 Frc consts  --      6.4801                 6.5498                 6.5509
 IR Inten    --      0.0034                 0.0000                 0.0000

                     28                     29                     30
                     A1                     B2                     A1
 Frequencies --   3212.3585              3212.8457              3223.3385
 Red. masses --      1.0961                 1.0960                 1.1004
 Frc consts  --      6.6641                 6.6659                 6.7364
 IR Inten    --     34.2590                34.9293                 0.0000

 - Thermochemistry -
 -------------------
 Temperature   298.150 Kelvin.  Pressure   1.00000 Atm.
 Atom     1 has atomic number  6 and mass  12.00000

 Molecular mass:    78.04695 amu.
 Principal axes and moments of inertia in atomic units:
                           1         2         3
     Eigenvalues --   314.80691 314.80774 629.61465
           X            0.00000   0.00000   1.00000
           Y            1.00000   0.00000   0.00000
           Z            0.00000   1.00000   0.00000
 This molecule is an asymmetric top.
 Rotational symmetry number  2.
 Rotational temperatures (Kelvin)      0.27513     0.27513     0.13757
 Rotational constants (GHZ):           5.73285     5.73284     2.86642
 Zero-point vibrational energy     265334.3 (Joules/Mol)
                                   63.41641 (Kcal/Mol)
 Warning -- explicit consideration of   2 degrees of freedom as
           vibrations may cause significant error
 Vibrational temperatures:    592.08   593.18   896.87   897.62   988.69
          (Kelvin)           1046.26  1250.38  1258.44  1433.29  1440.28
                             1472.57  1474.84  1475.10  1537.50  1541.92
                             1696.32  1731.15  1741.15  1928.00  1989.37
                             2186.90  2193.26  2398.18  2398.94  4583.37
                             4598.16  4598.77  4621.86  4622.56  4637.66

 Zero-point correction=                           0.101060 (Hartree/Particle)
 Thermal correction to Energy=                    0.105437
 Thermal correction to Enthalpy=                  0.106381
 Thermal correction to Gibbs Free Energy=         0.074265
 Sum of electronic and zero-point Energies=           -232.119902
 Sum of electronic and thermal Energies=              -232.115526
 Sum of electronic and thermal Enthalpies=            -232.114582
 Sum of electronic and thermal Free Energies=         -232.146698

                     E (Thermal)             CV                S
                      KCal/Mol        Cal/Mol-Kelvin    Cal/Mol-Kelvin
 Total                   66.163             17.033             67.594
 Electronic               0.000              0.000              0.000
 Translational            0.889              2.981             38.979
 Rotational               0.889              2.981             24.260
 Vibrational             64.385             11.072              4.355
 Vibration     1          0.775              1.445              0.921
 Vibration     2          0.776              1.444              0.919

 Optimization completed.
    -- Stationary point found.
 Normal termination of Gaussian 09 at Thu May  4 09:19:46 2017.
